C.lmps (written by ASE) 

2744 	 atoms 
1  atom types
0.0      25.015970000000003  xlo xhi
0.0      25.015970000000003  ylo yhi
0.0      25.015970000000003  zlo zhi


Atoms 

     1   1     0.89342750000000004      2.6802825000000001     0.89342750000000004
     2   1                       0                       0      1.7868550000000001
     3   1     0.89342750000000004     0.89342750000000004      2.6802825000000001
     4   1                       0      1.7868550000000001                       0
     5   1      2.6802825000000001      2.6802825000000001      2.6802825000000001
     6   1      1.7868550000000001                       0                       0
     7   1      2.6802825000000001     0.89342750000000004     0.89342750000000004
     8   1      1.7868550000000001      1.7868550000000001      1.7868550000000001
     9   1     0.89342750000000004      2.6802825000000001      4.4671374999999998
    10   1                       0                       0      5.3605650000000002
    11   1     0.89342750000000004     0.89342750000000004      6.2539925000000007
    12   1                       0      1.7868550000000001      3.5737100000000002
    13   1      2.6802825000000001      2.6802825000000001      6.2539925000000007
    14   1      1.7868550000000001                       0      3.5737100000000002
    15   1      2.6802825000000001     0.89342750000000004      4.4671374999999998
    16   1      1.7868550000000001      1.7868550000000001      5.3605650000000002
    17   1     0.89342750000000004      2.6802825000000001      8.0408474999999999
    18   1                       0                       0      8.9342749999999995
    19   1     0.89342750000000004     0.89342750000000004      9.8277025000000009
    20   1                       0      1.7868550000000001      7.1474200000000003
    21   1      2.6802825000000001      2.6802825000000001      9.8277025000000009
    22   1      1.7868550000000001                       0      7.1474200000000003
    23   1      2.6802825000000001     0.89342750000000004      8.0408474999999999
    24   1      1.7868550000000001      1.7868550000000001      8.9342749999999995
    25   1     0.89342750000000004      2.6802825000000001              11.6145575
    26   1                       0                       0      12.507985000000001
    27   1     0.89342750000000004     0.89342750000000004      13.401412500000001
    28   1                       0      1.7868550000000001                10.72113
    29   1      2.6802825000000001      2.6802825000000001      13.401412500000001
    30   1      1.7868550000000001                       0                10.72113
    31   1      2.6802825000000001     0.89342750000000004              11.6145575
    32   1      1.7868550000000001      1.7868550000000001      12.507985000000001
    33   1     0.89342750000000004      2.6802825000000001              15.1882675
    34   1                       0                       0               16.081695
    35   1     0.89342750000000004     0.89342750000000004      16.975122500000001
    36   1                       0      1.7868550000000001      14.294840000000001
    37   1      2.6802825000000001      2.6802825000000001      16.975122500000001
    38   1      1.7868550000000001                       0      14.294840000000001
    39   1      2.6802825000000001     0.89342750000000004              15.1882675
    40   1      1.7868550000000001      1.7868550000000001               16.081695
    41   1     0.89342750000000004      2.6802825000000001              18.7619775
    42   1                       0                       0      19.655404999999998
    43   1     0.89342750000000004     0.89342750000000004              20.5488325
    44   1                       0      1.7868550000000001      17.868549999999999
    45   1      2.6802825000000001      2.6802825000000001              20.5488325
    46   1      1.7868550000000001                       0      17.868549999999999
    47   1      2.6802825000000001     0.89342750000000004              18.7619775
    48   1      1.7868550000000001      1.7868550000000001      19.655404999999998
    49   1     0.89342750000000004      2.6802825000000001      22.335687500000002
    50   1                       0                       0               23.229115
    51   1     0.89342750000000004     0.89342750000000004      24.122542500000002
    52   1                       0      1.7868550000000001      21.442260000000001
    53   1      2.6802825000000001      2.6802825000000001      24.122542500000002
    54   1      1.7868550000000001                       0      21.442260000000001
    55   1      2.6802825000000001     0.89342750000000004      22.335687500000002
    56   1      1.7868550000000001      1.7868550000000001               23.229115
    57   1     0.89342750000000004      6.2539925000000007     0.89342750000000004
    58   1                       0      3.5737100000000002      1.7868550000000001
    59   1     0.89342750000000004      4.4671374999999998      2.6802825000000001
    60   1                       0      5.3605650000000002                       0
    61   1      2.6802825000000001      6.2539925000000007      2.6802825000000001
    62   1      1.7868550000000001      3.5737100000000002                       0
    63   1      2.6802825000000001      4.4671374999999998     0.89342750000000004
    64   1      1.7868550000000001      5.3605650000000002      1.7868550000000001
    65   1     0.89342750000000004      6.2539925000000007      4.4671374999999998
    66   1                       0      3.5737100000000002      5.3605650000000002
    67   1     0.89342750000000004      4.4671374999999998      6.2539925000000007
    68   1                       0      5.3605650000000002      3.5737100000000002
    69   1      2.6802825000000001      6.2539925000000007      6.2539925000000007
    70   1      1.7868550000000001      3.5737100000000002      3.5737100000000002
    71   1      2.6802825000000001      4.4671374999999998      4.4671374999999998
    72   1      1.7868550000000001      5.3605650000000002      5.3605650000000002
    73   1     0.89342750000000004      6.2539925000000007      8.0408474999999999
    74   1                       0      3.5737100000000002      8.9342749999999995
    75   1     0.89342750000000004      4.4671374999999998      9.8277025000000009
    76   1                       0      5.3605650000000002      7.1474200000000003
    77   1      2.6802825000000001      6.2539925000000007      9.8277025000000009
    78   1      1.7868550000000001      3.5737100000000002      7.1474200000000003
    79   1      2.6802825000000001      4.4671374999999998      8.0408474999999999
    80   1      1.7868550000000001      5.3605650000000002      8.9342749999999995
    81   1     0.89342750000000004      6.2539925000000007              11.6145575
    82   1                       0      3.5737100000000002      12.507985000000001
    83   1     0.89342750000000004      4.4671374999999998      13.401412500000001
    84   1                       0      5.3605650000000002                10.72113
    85   1      2.6802825000000001      6.2539925000000007      13.401412500000001
    86   1      1.7868550000000001      3.5737100000000002                10.72113
    87   1      2.6802825000000001      4.4671374999999998              11.6145575
    88   1      1.7868550000000001      5.3605650000000002      12.507985000000001
    89   1     0.89342750000000004      6.2539925000000007              15.1882675
    90   1                       0      3.5737100000000002               16.081695
    91   1     0.89342750000000004      4.4671374999999998      16.975122500000001
    92   1                       0      5.3605650000000002      14.294840000000001
    93   1      2.6802825000000001      6.2539925000000007      16.975122500000001
    94   1      1.7868550000000001      3.5737100000000002      14.294840000000001
    95   1      2.6802825000000001      4.4671374999999998              15.1882675
    96   1      1.7868550000000001      5.3605650000000002               16.081695
    97   1     0.89342750000000004      6.2539925000000007              18.7619775
    98   1                       0      3.5737100000000002      19.655404999999998
    99   1     0.89342750000000004      4.4671374999999998              20.5488325
   100   1                       0      5.3605650000000002      17.868549999999999
   101   1      2.6802825000000001      6.2539925000000007              20.5488325
   102   1      1.7868550000000001      3.5737100000000002      17.868549999999999
   103   1      2.6802825000000001      4.4671374999999998              18.7619775
   104   1      1.7868550000000001      5.3605650000000002      19.655404999999998
   105   1     0.89342750000000004      6.2539925000000007      22.335687500000002
   106   1                       0      3.5737100000000002               23.229115
   107   1     0.89342750000000004      4.4671374999999998      24.122542500000002
   108   1                       0      5.3605650000000002      21.442260000000001
   109   1      2.6802825000000001      6.2539925000000007      24.122542500000002
   110   1      1.7868550000000001      3.5737100000000002      21.442260000000001
   111   1      2.6802825000000001      4.4671374999999998      22.335687500000002
   112   1      1.7868550000000001      5.3605650000000002               23.229115
   113   1     0.89342750000000004      9.8277025000000009     0.89342750000000004
   114   1                       0      7.1474200000000003      1.7868550000000001
   115   1     0.89342750000000004      8.0408474999999999      2.6802825000000001
   116   1                       0      8.9342749999999995                       0
   117   1      2.6802825000000001      9.8277025000000009      2.6802825000000001
   118   1      1.7868550000000001      7.1474200000000003                       0
   119   1      2.6802825000000001      8.0408474999999999     0.89342750000000004
   120   1      1.7868550000000001      8.9342749999999995      1.7868550000000001
   121   1     0.89342750000000004      9.8277025000000009      4.4671374999999998
   122   1                       0      7.1474200000000003      5.3605650000000002
   123   1     0.89342750000000004      8.0408474999999999      6.2539925000000007
   124   1                       0      8.9342749999999995      3.5737100000000002
   125   1      2.6802825000000001      9.8277025000000009      6.2539925000000007
   126   1      1.7868550000000001      7.1474200000000003      3.5737100000000002
   127   1      2.6802825000000001      8.0408474999999999      4.4671374999999998
   128   1      1.7868550000000001      8.9342749999999995      5.3605650000000002
   129   1     0.89342750000000004      9.8277025000000009      8.0408474999999999
   130   1                       0      7.1474200000000003      8.9342749999999995
   131   1     0.89342750000000004      8.0408474999999999      9.8277025000000009
   132   1                       0      8.9342749999999995      7.1474200000000003
   133   1      2.6802825000000001      9.8277025000000009      9.8277025000000009
   134   1      1.7868550000000001      7.1474200000000003      7.1474200000000003
   135   1      2.6802825000000001      8.0408474999999999      8.0408474999999999
   136   1      1.7868550000000001      8.9342749999999995      8.9342749999999995
   137   1     0.89342750000000004      9.8277025000000009              11.6145575
   138   1                       0      7.1474200000000003      12.507985000000001
   139   1     0.89342750000000004      8.0408474999999999      13.401412500000001
   140   1                       0      8.9342749999999995                10.72113
   141   1      2.6802825000000001      9.8277025000000009      13.401412500000001
   142   1      1.7868550000000001      7.1474200000000003                10.72113
   143   1      2.6802825000000001      8.0408474999999999              11.6145575
   144   1      1.7868550000000001      8.9342749999999995      12.507985000000001
   145   1     0.89342750000000004      9.8277025000000009              15.1882675
   146   1                       0      7.1474200000000003               16.081695
   147   1     0.89342750000000004      8.0408474999999999      16.975122500000001
   148   1                       0      8.9342749999999995      14.294840000000001
   149   1      2.6802825000000001      9.8277025000000009      16.975122500000001
   150   1      1.7868550000000001      7.1474200000000003      14.294840000000001
   151   1      2.6802825000000001      8.0408474999999999              15.1882675
   152   1      1.7868550000000001      8.9342749999999995               16.081695
   153   1     0.89342750000000004      9.8277025000000009              18.7619775
   154   1                       0      7.1474200000000003      19.655404999999998
   155   1     0.89342750000000004      8.0408474999999999              20.5488325
   156   1                       0      8.9342749999999995      17.868549999999999
   157   1      2.6802825000000001      9.8277025000000009              20.5488325
   158   1      1.7868550000000001      7.1474200000000003      17.868549999999999
   159   1      2.6802825000000001      8.0408474999999999              18.7619775
   160   1      1.7868550000000001      8.9342749999999995      19.655404999999998
   161   1     0.89342750000000004      9.8277025000000009      22.335687500000002
   162   1                       0      7.1474200000000003               23.229115
   163   1     0.89342750000000004      8.0408474999999999      24.122542500000002
   164   1                       0      8.9342749999999995      21.442260000000001
   165   1      2.6802825000000001      9.8277025000000009      24.122542500000002
   166   1      1.7868550000000001      7.1474200000000003      21.442260000000001
   167   1      2.6802825000000001      8.0408474999999999      22.335687500000002
   168   1      1.7868550000000001      8.9342749999999995               23.229115
   169   1     0.89342750000000004      13.401412500000001     0.89342750000000004
   170   1                       0                10.72113      1.7868550000000001
   171   1     0.89342750000000004              11.6145575      2.6802825000000001
   172   1                       0      12.507985000000001                       0
   173   1      2.6802825000000001      13.401412500000001      2.6802825000000001
   174   1      1.7868550000000001                10.72113                       0
   175   1      2.6802825000000001              11.6145575     0.89342750000000004
   176   1      1.7868550000000001      12.507985000000001      1.7868550000000001
   177   1     0.89342750000000004      13.401412500000001      4.4671374999999998
   178   1                       0                10.72113      5.3605650000000002
   179   1     0.89342750000000004              11.6145575      6.2539925000000007
   180   1                       0      12.507985000000001      3.5737100000000002
   181   1      2.6802825000000001      13.401412500000001      6.2539925000000007
   182   1      1.7868550000000001                10.72113      3.5737100000000002
   183   1      2.6802825000000001              11.6145575      4.4671374999999998
   184   1      1.7868550000000001      12.507985000000001      5.3605650000000002
   185   1     0.89342750000000004      13.401412500000001      8.0408474999999999
   186   1                       0                10.72113      8.9342749999999995
   187   1     0.89342750000000004              11.6145575      9.8277025000000009
   188   1                       0      12.507985000000001      7.1474200000000003
   189   1      2.6802825000000001      13.401412500000001      9.8277025000000009
   190   1      1.7868550000000001                10.72113      7.1474200000000003
   191   1      2.6802825000000001              11.6145575      8.0408474999999999
   192   1      1.7868550000000001      12.507985000000001      8.9342749999999995
   193   1     0.89342750000000004      13.401412500000001              11.6145575
   194   1                       0                10.72113      12.507985000000001
   195   1     0.89342750000000004              11.6145575      13.401412500000001
   196   1                       0      12.507985000000001                10.72113
   197   1      2.6802825000000001      13.401412500000001      13.401412500000001
   198   1      1.7868550000000001                10.72113                10.72113
   199   1      2.6802825000000001              11.6145575              11.6145575
   200   1      1.7868550000000001      12.507985000000001      12.507985000000001
   201   1     0.89342750000000004      13.401412500000001              15.1882675
   202   1                       0                10.72113               16.081695
   203   1     0.89342750000000004              11.6145575      16.975122500000001
   204   1                       0      12.507985000000001      14.294840000000001
   205   1      2.6802825000000001      13.401412500000001      16.975122500000001
   206   1      1.7868550000000001                10.72113      14.294840000000001
   207   1      2.6802825000000001              11.6145575              15.1882675
   208   1      1.7868550000000001      12.507985000000001               16.081695
   209   1     0.89342750000000004      13.401412500000001              18.7619775
   210   1                       0                10.72113      19.655404999999998
   211   1     0.89342750000000004              11.6145575              20.5488325
   212   1                       0      12.507985000000001      17.868549999999999
   213   1      2.6802825000000001      13.401412500000001              20.5488325
   214   1      1.7868550000000001                10.72113      17.868549999999999
   215   1      2.6802825000000001              11.6145575              18.7619775
   216   1      1.7868550000000001      12.507985000000001      19.655404999999998
   217   1     0.89342750000000004      13.401412500000001      22.335687500000002
   218   1                       0                10.72113               23.229115
   219   1     0.89342750000000004              11.6145575      24.122542500000002
   220   1                       0      12.507985000000001      21.442260000000001
   221   1      2.6802825000000001      13.401412500000001      24.122542500000002
   222   1      1.7868550000000001                10.72113      21.442260000000001
   223   1      2.6802825000000001              11.6145575      22.335687500000002
   224   1      1.7868550000000001      12.507985000000001               23.229115
   225   1     0.89342750000000004      16.975122500000001     0.89342750000000004
   226   1                       0      14.294840000000001      1.7868550000000001
   227   1     0.89342750000000004              15.1882675      2.6802825000000001
   228   1                       0               16.081695                       0
   229   1      2.6802825000000001      16.975122500000001      2.6802825000000001
   230   1      1.7868550000000001      14.294840000000001                       0
   231   1      2.6802825000000001              15.1882675     0.89342750000000004
   232   1      1.7868550000000001               16.081695      1.7868550000000001
   233   1     0.89342750000000004      16.975122500000001      4.4671374999999998
   234   1                       0      14.294840000000001      5.3605650000000002
   235   1     0.89342750000000004              15.1882675      6.2539925000000007
   236   1                       0               16.081695      3.5737100000000002
   237   1      2.6802825000000001      16.975122500000001      6.2539925000000007
   238   1      1.7868550000000001      14.294840000000001      3.5737100000000002
   239   1      2.6802825000000001              15.1882675      4.4671374999999998
   240   1      1.7868550000000001               16.081695      5.3605650000000002
   241   1     0.89342750000000004      16.975122500000001      8.0408474999999999
   242   1                       0      14.294840000000001      8.9342749999999995
   243   1     0.89342750000000004              15.1882675      9.8277025000000009
   244   1                       0               16.081695      7.1474200000000003
   245   1      2.6802825000000001      16.975122500000001      9.8277025000000009
   246   1      1.7868550000000001      14.294840000000001      7.1474200000000003
   247   1      2.6802825000000001              15.1882675      8.0408474999999999
   248   1      1.7868550000000001               16.081695      8.9342749999999995
   249   1     0.89342750000000004      16.975122500000001              11.6145575
   250   1                       0      14.294840000000001      12.507985000000001
   251   1     0.89342750000000004              15.1882675      13.401412500000001
   252   1                       0               16.081695                10.72113
   253   1      2.6802825000000001      16.975122500000001      13.401412500000001
   254   1      1.7868550000000001      14.294840000000001                10.72113
   255   1      2.6802825000000001              15.1882675              11.6145575
   256   1      1.7868550000000001               16.081695      12.507985000000001
   257   1     0.89342750000000004      16.975122500000001              15.1882675
   258   1                       0      14.294840000000001               16.081695
   259   1     0.89342750000000004              15.1882675      16.975122500000001
   260   1                       0               16.081695      14.294840000000001
   261   1      2.6802825000000001      16.975122500000001      16.975122500000001
   262   1      1.7868550000000001      14.294840000000001      14.294840000000001
   263   1      2.6802825000000001              15.1882675              15.1882675
   264   1      1.7868550000000001               16.081695               16.081695
   265   1     0.89342750000000004      16.975122500000001              18.7619775
   266   1                       0      14.294840000000001      19.655404999999998
   267   1     0.89342750000000004              15.1882675              20.5488325
   268   1                       0               16.081695      17.868549999999999
   269   1      2.6802825000000001      16.975122500000001              20.5488325
   270   1      1.7868550000000001      14.294840000000001      17.868549999999999
   271   1      2.6802825000000001              15.1882675              18.7619775
   272   1      1.7868550000000001               16.081695      19.655404999999998
   273   1     0.89342750000000004      16.975122500000001      22.335687500000002
   274   1                       0      14.294840000000001               23.229115
   275   1     0.89342750000000004              15.1882675      24.122542500000002
   276   1                       0               16.081695      21.442260000000001
   277   1      2.6802825000000001      16.975122500000001      24.122542500000002
   278   1      1.7868550000000001      14.294840000000001      21.442260000000001
   279   1      2.6802825000000001              15.1882675      22.335687500000002
   280   1      1.7868550000000001               16.081695               23.229115
   281   1     0.89342750000000004              20.5488325     0.89342750000000004
   282   1                       0      17.868549999999999      1.7868550000000001
   283   1     0.89342750000000004              18.7619775      2.6802825000000001
   284   1                       0      19.655404999999998                       0
   285   1      2.6802825000000001              20.5488325      2.6802825000000001
   286   1      1.7868550000000001      17.868549999999999                       0
   287   1      2.6802825000000001              18.7619775     0.89342750000000004
   288   1      1.7868550000000001      19.655404999999998      1.7868550000000001
   289   1     0.89342750000000004              20.5488325      4.4671374999999998
   290   1                       0      17.868549999999999      5.3605650000000002
   291   1     0.89342750000000004              18.7619775      6.2539925000000007
   292   1                       0      19.655404999999998      3.5737100000000002
   293   1      2.6802825000000001              20.5488325      6.2539925000000007
   294   1      1.7868550000000001      17.868549999999999      3.5737100000000002
   295   1      2.6802825000000001              18.7619775      4.4671374999999998
   296   1      1.7868550000000001      19.655404999999998      5.3605650000000002
   297   1     0.89342750000000004              20.5488325      8.0408474999999999
   298   1                       0      17.868549999999999      8.9342749999999995
   299   1     0.89342750000000004              18.7619775      9.8277025000000009
   300   1                       0      19.655404999999998      7.1474200000000003
   301   1      2.6802825000000001              20.5488325      9.8277025000000009
   302   1      1.7868550000000001      17.868549999999999      7.1474200000000003
   303   1      2.6802825000000001              18.7619775      8.0408474999999999
   304   1      1.7868550000000001      19.655404999999998      8.9342749999999995
   305   1     0.89342750000000004              20.5488325              11.6145575
   306   1                       0      17.868549999999999      12.507985000000001
   307   1     0.89342750000000004              18.7619775      13.401412500000001
   308   1                       0      19.655404999999998                10.72113
   309   1      2.6802825000000001              20.5488325      13.401412500000001
   310   1      1.7868550000000001      17.868549999999999                10.72113
   311   1      2.6802825000000001              18.7619775              11.6145575
   312   1      1.7868550000000001      19.655404999999998      12.507985000000001
   313   1     0.89342750000000004              20.5488325              15.1882675
   314   1                       0      17.868549999999999               16.081695
   315   1     0.89342750000000004              18.7619775      16.975122500000001
   316   1                       0      19.655404999999998      14.294840000000001
   317   1      2.6802825000000001              20.5488325      16.975122500000001
   318   1      1.7868550000000001      17.868549999999999      14.294840000000001
   319   1      2.6802825000000001              18.7619775              15.1882675
   320   1      1.7868550000000001      19.655404999999998               16.081695
   321   1     0.89342750000000004              20.5488325              18.7619775
   322   1                       0      17.868549999999999      19.655404999999998
   323   1     0.89342750000000004              18.7619775              20.5488325
   324   1                       0      19.655404999999998      17.868549999999999
   325   1      2.6802825000000001              20.5488325              20.5488325
   326   1      1.7868550000000001      17.868549999999999      17.868549999999999
   327   1      2.6802825000000001              18.7619775              18.7619775
   328   1      1.7868550000000001      19.655404999999998      19.655404999999998
   329   1     0.89342750000000004              20.5488325      22.335687500000002
   330   1                       0      17.868549999999999               23.229115
   331   1     0.89342750000000004              18.7619775      24.122542500000002
   332   1                       0      19.655404999999998      21.442260000000001
   333   1      2.6802825000000001              20.5488325      24.122542500000002
   334   1      1.7868550000000001      17.868549999999999      21.442260000000001
   335   1      2.6802825000000001              18.7619775      22.335687500000002
   336   1      1.7868550000000001      19.655404999999998               23.229115
   337   1     0.89342750000000004      24.122542500000002     0.89342750000000004
   338   1                       0      21.442260000000001      1.7868550000000001
   339   1     0.89342750000000004      22.335687500000002      2.6802825000000001
   340   1                       0               23.229115                       0
   341   1      2.6802825000000001      24.122542500000002      2.6802825000000001
   342   1      1.7868550000000001      21.442260000000001                       0
   343   1      2.6802825000000001      22.335687500000002     0.89342750000000004
   344   1      1.7868550000000001               23.229115      1.7868550000000001
   345   1     0.89342750000000004      24.122542500000002      4.4671374999999998
   346   1                       0      21.442260000000001      5.3605650000000002
   347   1     0.89342750000000004      22.335687500000002      6.2539925000000007
   348   1                       0               23.229115      3.5737100000000002
   349   1      2.6802825000000001      24.122542500000002      6.2539925000000007
   350   1      1.7868550000000001      21.442260000000001      3.5737100000000002
   351   1      2.6802825000000001      22.335687500000002      4.4671374999999998
   352   1      1.7868550000000001               23.229115      5.3605650000000002
   353   1     0.89342750000000004      24.122542500000002      8.0408474999999999
   354   1                       0      21.442260000000001      8.9342749999999995
   355   1     0.89342750000000004      22.335687500000002      9.8277025000000009
   356   1                       0               23.229115      7.1474200000000003
   357   1      2.6802825000000001      24.122542500000002      9.8277025000000009
   358   1      1.7868550000000001      21.442260000000001      7.1474200000000003
   359   1      2.6802825000000001      22.335687500000002      8.0408474999999999